formula,mp-id,melt_temp_C,melt_temp_K,log10_melt_temp_K,coh_en,bulk_m,shear_m,form_e_per_atom,density,%ic
SeO3,mp-27519,118,391.15,2.592343335,4.128049608,43.28158511,16.78480905,-0.88548932,2.980741391,17.96506559
Si3N4,mp-988,1900,2173.15,3.337089704,6.049784238,158.8198592,101.971684,-1.313574679,3.134176827,27.740039
SiO2,mp-546794,1713,1986.15,3.298012045,7.086621973,93.79198263,57.52993253,-3.277997669,2.116918417,44.72779357
SiS2,mp-1602,1092,1365.15,3.135180373,4.814993253,32.07923351,18.21425728,-1.118893917,1.61508965,10.91685154
Sm2O3,mp-218,2335,2608.15,3.416332565,7.722335268,165.7157939,66.77743618,-3.871491252,6.96176576,72.42401774
Sm2S3,mp-1403,1720,1993.15,3.299539984,6.213505576,94.59769827,43.8681803,-2.463934031,5.722566655,39.16622248
SmB6,mp-6996,2400,2673.15,3.427023329,6.593720129,206.7867043,147.1718469,-0.455128529,5.111503219,17.23997243
SmCl2,mp-867134,855,1128.15,3.052366848,4.487721648,47.04002616,14.18436278,-2.322555642,4.145672857,62.84325983
SmCl3,mp-867875,686,959.15,2.981886531,4.518646613,30.05917517,9.880275417,-2.646001911,2.85878937,62.84325983
SmF3,mp-7384,1306,1579.15,3.198423385,6.284497041,173.0622376,57.32252354,-4.468193347,6.51059387,86.11033295
Sn4P3,mp-27410,550,823.15,2.915478983,3.366824517,24.18779435,34.95633557,-0.052396737,5.636037599,1.313793393
SnBr2,mp-1272139,232,505.15,2.703420357,2.781167753,13.28450153,7.727418621,-0.78526851,4.018762051,22.11992169
SnCl2,mp-569152,246,519.15,2.715292858,3.110579765,26.40955639,8.793794629,-1.395112604,3.575402659,30.23236739
SnF2,mp-7457,213,486.15,2.68677029,4.260084732,57.34888931,17.17868735,-2.594698466,4.480943264,63.94411175
SnI2,mp-27194,320,593.15,2.773164535,2.439870048,16.57357737,7.401869502,-0.497819988,4.96952879,11.52940951
SnO,mp-2097,1080,1353.15,3.131345942,4.931364375,77.79709358,26.72933916,-1.645986556,5.942455351,42.16638471
SnO2,mp-856,1630,1903.15,3.279473019,5.451813855,125.2554717,48.12476601,-2.123390066,6.608865506,42.16638471
SnS,mp-2231,880,1153.15,3.061885803,3.979024598,42.9320428,20.41684394,-0.778040504,4.900134264,9.162682579
SnSe,mp-2693,861,1134.15,3.054670497,3.380017585,37.8078905,17.82158338,-0.438550646,5.884042574,8.334582101
SnSe2,mp-665,650,923.15,2.965272274,3.21470425,29.46546,14.62971278,-0.344828302,5.120499117,8.334582101
SnTe,mp-1883,790,1063.15,3.026594544,3.11612974,31.12293984,16.87659895,-0.294800235,6.19081033,0.488801458
Sr3N2,mp-986716,1200,1473.15,3.16824697,3.568947639,43.1320323,19.04301001,-0.659771232,4.100238627,66.44636558
SrB6,mp-242,2235,2508.15,3.399353506,6.176240216,130.7611809,124.3607325,-0.449629501,3.417060889,25.69745635
SrBr2,mp-567744,643,916.15,2.961966586,3.633440624,27.19984202,9.900648145,-2.149131266,3.755932998,63.57901258
SrCl2,mp-23209,874,1147.15,3.059620209,4.085607253,38.98633452,13.0931802,-2.881729978,3.008534475,70.5072289
SrF2,mp-981,1477,1750.15,3.243075272,5.405644787,74.25833411,32.40052644,-4.251848406,4.133836695,89.92612755
SrH2,mp-23714,1050,1323.15,3.121609081,2.591684004,39.64626916,17.33532124,-0.635288126,3.317781041,32.33661538
SrI2,mp-568284,538,811.15,2.909101173,3.139955339,18.606564,8.948472419,-1.709495165,4.242869104,51.85847136
SrO,mp-2472,2531,2804.15,3.447801241,5.602737525,77.09093135,38.07095296,-3.084744534,4.877526424,78.77573323
SrS,mp-1087,2002,2275.15,3.357010035,4.908896495,42.71873354,27.23530011,-2.47529723,3.566052108,48.53277558
SrSe,mp-2758,1600,1873.15,3.272572557,4.2364029,37.63894479,22.57014129,-2.06232079,4.41686713,47.2707576
SrSi2,mp-1727,1100,1373.15,3.137717981,3.972012307,52.61888938,37.51944739,-0.366961252,3.472602102,20.19826979
Ta2C,mp-7088,3327,3600.15,3.556320596,8.87508814,273.125407,157.7482113,-0.597663717,14.76867144,24.0902461
Ta2O5,mp-1539317,1872,2145.15,3.331457666,8.200116709,207.553383,72.52338474,-3.351821772,7.395680243,60.97235715
TaB,mp-1097,3107,3380.15,3.528935973,8.234642885,288.5218098,184.9052353,-0.812871009,13.98092219,7.030620524
TaC,mp-1086,3880,4153.15,3.618377617,8.775704895,312.3726672,205.3146693,-0.57593974,14.23428097,24.0902461
TaSi2,mp-11192,2200,2473.15,3.393250458,6.354171538,172.7414734,97.97613616,-0.478696248,8.940924456,3.921056085
TbBr3,mp-867247,827,1100.15,3.041451903,4.012313344,6.454322362,4.567354655,-1.853560144,3.821645121,57.89063401
TbCl3,mp-570232,558,831.15,2.919679409,4.552486869,41.69807409,12.81591839,-2.709219761,3.520047927,65.38558596
TbF3,mp-11347,1172,1445.15,3.159912927,6.276290588,105.6819967,47.11429111,-4.489364487,7.163535575,87.42676704
TbI3,mp-867231,957,1230.15,3.089958071,3.476128413,13.04737002,6.956877286,-1.377955544,3.984248352,45.57790737
TeF4,mp-561664,129,402.15,2.604388073,3.725607585,50.61576162,15.41200561,-2.492356209,3.963945904,58.67076222
TeO2,mp-2125,733,1006.15,3.002662732,4.610048209,68.07272348,24.55137224,-1.504898023,5.362720486,36.16700715
TeO3,mp-1101301,430,703.15,2.847047981,4.535639684,40.20702252,17.73427781,-1.353148112,4.719327511,36.16700715
ThC,mp-1164,2655,2928.15,3.466593321,7.590863085,176.6505,77.54278565,-0.276161105,10.55853393,32.33661538
ThCl4,mp-567431,770,1043.15,3.018346762,4.766846357,51.78040392,16.2948395,-2.638258406,4.4504483,57.89063401
ThN,mp-834,2820,3093.15,3.490400981,7.515708985,211.3318609,82.04705981,-1.764032861,11.78644123,53.08815576
Ti2O3,mp-458,2130,2403.15,3.380780879,7.638233388,212.9258892,123.7009619,-3.312792627,4.52357834,59.44454949
Ti5Si3,mp-2108,2130,2403.15,3.380780879,6.052236866,138.737553,84.40110964,-0.771028626,4.347039406,3.188074308
TiB2,mp-1145,3230,3503.15,3.544458734,7.22666541,258.3651045,214.0686465,-1.055522112,4.487425163,6.058693719
TiCl2,mp-28116,1035,1308.15,3.116657546,4.316106757,54.53861226,17.11780467,-1.755443462,2.682312796,48.11290095
TiI2,mp-1207060,600,873.15,2.941088858,3.397574927,12.48425147,6.738433444,-0.610328733,5.095647985,26.91887058
TiI4,mp-541013,150,423.15,2.626494345,2.934408532,16.9623021,7.713023716,-0.728078762,4.366869075,26.91887058
TiN,mp-492,2930,3203.15,3.505577277,7.17396273,256.8852748,161.0453411,-1.907680756,5.340297483,43.02171753
TiO,mp-1071163,1750,2023.15,3.306028083,7.468995655,229.625609,132.7226348,-2.915823636,5.06132625,59.44454949
TiO2,mp-554278,1843,2116.15,3.325546449,7.685584657,166.3533709,96.34883884,-3.511964735,3.615940061,59.44454949
TiSi2,mp-1077503,1470,1743.15,3.24133476,5.524653753,134.2234358,106.9288884,-0.56281668,4.027104901,3.188074308
Tl2O3,mp-1658,717,990.15,2.995700992,3.979849888,95.16426518,22.70917615,-1.11352795,9.702866862,56.31214325
TlBr,mp-568560,480,753.15,2.87688148,2.614102065,21.74620023,7.949779588,-0.884221985,6.055751177,36.16700715
TlCl,mp-569639,430,703.15,2.847047981,2.834388295,25.44947943,7.835379718,-1.314832277,5.7166201,44.72779357
TlF,mp-720,327,600.15,2.77825981,3.463756815,50.19505253,10.68875616,-1.981761468,7.625370866,75.15217593
TlI,mp-571102,440,713.15,2.853180887,2.371027645,16.5923347,7.241258154,-0.681534453,6.05014633,23.69257964
TlSe,mp-1836,330,603.15,2.780425332,2.660742371,35.60730793,14.00323715,-0.275379762,7.714673989,19.44459682
TmBr3,mp-865301,952,1225.15,3.088189264,3.94785584,22.53641544,8.565214401,-1.831251663,3.948455443,51.85847136
TmCl3,mp-28044,821,1094.15,3.039076865,4.49264579,46.76185357,14.17980671,-2.691527706,3.959802152,59.82900628
TmF3,mp-865194,1158,1431.15,3.155685155,5.889397515,238.5520144,72.30321253,-4.144620438,9.01700474,84.48286052
TmI3,mp-865353,1015,1288.15,3.109966438,3.393562456,11.74050074,6.465466009,-1.337538611,3.902038752,39.16622248
UB2,mp-1514,2430,2703.15,3.431870146,7.021433213,329.1319671,172.1415892,-0.584166096,13.03875758,10.3179905
UBr3,mp-23255,730,1003.15,3.001365877,3.976546054,49.56495907,16.37875176,-1.292199429,6.421426733,46.42566193
UC,mp-2489,2790,3063.15,3.486168264,7.353215845,293.7655113,124.5383462,-0.124722285,13.80024587,28.98116057
UC2,mp-2486,2350,2623.15,3.418823126,7.58696645,297.051762,156.3768039,-0.11237496,11.77880776,28.98116057
UCl3,mp-23208,835,1108.15,3.044598551,4.502823848,64.83483156,19.70693183,-2.133963315,5.491561673,54.71072788
UCl4,mp-23235,590,863.15,2.936086275,4.178757052,17.76553713,11.45640555,-2.084652469,4.629107734,54.71072788
UF5,mp-1852,348,621.15,2.79319649,5.752067928,109.0439887,33.23657549,-3.903735097,5.151624829,81.5480476
UF6,mp-2275,64,337.15,2.527823164,5.428947077,94.27541463,28.6860718,-3.713239015,4.638046314,81.5480476
UN,mp-1865,2675,2948.15,3.469549576,7.167035345,311.8469735,119.5024091,-1.501567641,14.46962117,49.78718937
UO2,mp-1597,2865,3138.15,3.496673699,8.200385007,268.6141327,124.5142602,-3.760641264,11.26254119,65.38558596
V2C,mp-20648,2167,2440.15,3.387416524,6.740458758,232.4679639,145.8902709,-0.472562522,5.741137786,19.07116518
V2O3,mp-18937,1940,2213.15,3.34501085,6.74457751,173.4245801,79.12308149,-2.528487801,4.643588619,55.91387152
V2O4,mp-19094,1967,2240.15,3.3502771,6.567457178,168.6954995,77.4098898,-2.484963132,4.446943636,55.91387152
V2O5,mp-25279,690,963.15,2.983693929,6.282312421,48.10540435,25.21277364,-2.295243849,3.012184513,55.91387152
V3Si,mp-2567,1935,2208.15,3.344028572,5.677650234,179.4600604,96.48997513,-0.46460186,5.77814219,1.805992901
VB,mp-9973,2250,2523.15,3.40194307,6.762404018,267.6034418,187.5681953,-0.847778282,5.631694261,4.115419087
VB2,mp-1491,2450,2723.15,3.435071564,6.819375173,286.1508058,226.2106454,-0.739357752,5.10857069,4.115419087
VC,mp-1282,2810,3083.15,3.488994654,7.104013605,289.6109529,197.9745358,-0.41139459,5.800035846,19.07116518
VN,mp-1018027,2050,2323.15,3.366077252,6.48390053,330.1886553,259.6509361,-1.354307371,6.23865029,39.16622248
VO,mp-19184,1790,2063.15,3.314530804,6.506193682,167.2528284,91.91537688,-2.089710478,5.196116801,55.91387152
W2B,mp-1113,2670,2943.15,3.468812397,7.932834505,337.3740553,153.7396505,-0.261861554,16.75971941,2.52750984
W2B5,mp-8079,2365,2638.15,3.421299485,6.701966339,168.6041907,90.97241885,0.248908235,11.76511744,2.52750984
WB,mp-7832,2660,2933.15,3.467334273,7.723607461,333.7953311,184.473686,-0.36767755,15.33150269,2.52750984
WF6,mp-555003,2.3,275.45,2.440042777,4.798182829,3.36922615,2.939111757,-2.823780587,4.183681723,48.11290095
WO3,mp-19443,1472,1745.15,3.241832762,6.810816014,97.63685443,40.14691767,-2.17466446,6.656532553,25.29326969
WSi2,mp-1620,2165,2438.15,3.387060421,6.178863697,191.3800195,98.26176098,-0.34728305,9.689780275,5.152514477
Y2O3,mp-2652,2425,2698.15,3.43106609,7.745725134,135.5199245,76.50379482,-3.980255982,4.892007864,70.83205927
Y2S3,mp-541289,1925,2198.15,3.342057325,6.136671567,74.24767772,41.66384003,-2.472474886,3.775544157,37.02296186
YbF3,mp-22072,1052,1325.15,3.122265041,4.496398793,152.2719539,35.7689885,-3.437583161,7.932252075,87.42676704
YBr3,mp-754815,904,1177.15,3.070831807,4.050413522,25.05104259,9.739991273,-1.915642018,3.481606379,53.08815576
YCl3,mp-27455,721,994.15,2.997451917,4.54893732,33.74563104,10.93829468,-2.729651908,2.299516587,60.97235715
YF3,mp-2416,1387,1660.15,3.22014733,6.212714739,70.47252489,41.9719595,-4.449770335,4.778107946,85.1088037
YI3,mp-571442,1004,1277.15,3.106241908,3.511643704,8.858477231,4.34933783,-1.437452531,4.01172799,40.45274578
Zn3As2,mp-680580,1015,1288.15,3.109966438,1.99550112,51.67331798,21.06027679,-0.148437963,5.423547241,6.78159451
Zn3P2,mp-2071,420,693.15,2.840827228,2.255781436,60.84950844,25.40410904,-0.188477562,4.535573554,7.030620524
ZnCl2,mp-22909,290,563.15,2.750624088,2.572570992,32.53598806,8.57949975,-1.544091636,2.755305033,43.44886993
ZnF2,mp-1873,872,1145.15,3.058862377,3.600764197,96.75336926,26.23452636,-2.622365736,4.674879836,74.26260003
ZnO,mp-2133,1975,2248.15,3.351825285,4.053555555,115.1407468,34.93712537,-1.798659443,5.437864496,55.11313621
ZnSb,mp-753,570,843.15,2.925904844,1.934968088,41.70839151,17.52026596,-0.028138728,6.144086677,3.921056085
ZnSe,mp-1190,1517,1790.15,3.252889423,2.62628301,46.57875864,18.52031773,-0.715297779,5.064263884,18.33135174
ZnTe,mp-2176,1239,1512.15,3.179594874,2.26414633,32.72088195,15.79249716,-0.473298533,5.418813343,4.936490814
ZrB2,mp-1472,3000,3273.15,3.514965908,7.42952331,224.9370031,174.5156346,-0.987354686,6.03310523,11.84071933
ZrC,mp-2795,3532,3805.15,3.580371781,8.04082761,197.5338259,138.3634581,-0.80498179,6.50296405,31.07146895
ZrF4,mp-1105223,910,1183.15,3.073039808,6.062583849,100.7344406,43.34221147,-4.025635436,4.415920868,82.7200791
ZrN,mp-1352,2980,3253.15,3.512304089,7.5429016,208.0292382,127.7418734,-1.870081636,7.098978293,51.85847136
ZrO2,mp-2858,2710,2983.15,3.474675091,8.268456291,196.0371009,115.9534258,-3.823811042,5.563611317,67.14364485
ZrS2,mp-1186,1480,1753.15,3.243819076,6.288032493,66.99831691,37.46612324,-1.955912212,3.307469233,32.33661538
ZrSi2,mp-1515,1620,1893.15,3.277185026,5.881939037,123.5030122,76.71978931,-0.649076637,4.846510561,7.801377879