formula,mp-id,melt_temp_C,melt_temp_K,log10_melt_temp_K,coh_en,bulk_m,shear_m,form_e_per_atom,density,%ic
GeS,mp-2242,615,888.15,2.94848632,4.077047725,53.34059533,24.82716426,-0.584644292,3.954535749,7.801377879
GeSe,mp-10759,667,940.15,2.97319715,3.441989135,50.30455466,22.30376437,-0.209102856,5.536591818,7.030620524
GeSe2,mp-10074,707,980.15,2.991292544,3.318156243,29.28269206,14.84268717,-0.254000735,4.305992284,7.030620524
GeTe,mp-938,725,998.15,2.999195811,3.207728835,38.01177966,20.40725535,-0.09497999,5.909652336,0.202295107
HfB2,mp-1994,3250,3523.15,3.546931134,7.548882903,261.7189918,188.3017059,-1.017879029,11.12171908,12.79425725
HfN,mp-2828,3385,3658.15,3.563261509,7.74470858,251.9466669,143.2042024,-1.938635741,13.68399725,53.08815576
HfO2,mp-352,2758,3031.15,3.481607428,8.563489984,233.3572366,134.6915867,-4.030009485,9.967760671,68.17442582
Hg2Br2,mp-23177,405,678.15,2.831325766,1.22248873,19.98088676,6.046638154,-0.42509156,6.678630235,20.57841474
Hg2Cl2,mp-22897,525,798.15,2.902084518,1.4277436,21.93484437,5.786483968,-0.840670492,6.256326939,28.56626863
HgBr2,mp-23292,236,509.15,2.706845748,1.478262872,14.61912331,4.903440476,-0.474755122,5.199394405,20.57841474
HgCl2,mp-22855,276,549.15,2.739690988,1.720079059,3.803979717,16.19538354,-0.997003391,4.602845244,28.56626863
HgTe,mp-2730,673,946.15,2.975959994,1.49611337,22.03970464,8.8744618,-0.163371105,7.377919078,0.24968776
Ho2O3,mp-812,2415,2688.15,3.429453499,7.823630739,200.8036074,81.98874749,-4.042830838,8.403898598,70.5072289
HoBr3,mp-977375,914,1187.15,3.074505597,3.984422901,23.96854757,8.986944922,-1.840069679,4.019453873,52.67942521
HoCl3,mp-864662,718,991.15,2.996139385,4.486988009,28.331181,9.568755053,-2.658120879,2.946539358,60.5929322
HoF3,mp-561877,1143,1416.15,3.151109257,6.25949601,199.9307097,65.45925709,-4.486969887,7.58260935,84.90225815
HoI3,mp-864657,1010,1283.15,3.108277428,3.444648273,11.40589846,6.403962527,-1.360875381,3.805287732,40.02395779
In2S3,mp-22216,1050,1323.15,3.121609081,3.83707821,45.03660951,19.38385501,-0.931001524,4.365749954,14.7856211
In2Se3,mp-612740,890,1163.15,3.065635725,3.113275546,30.4139349,14.63407841,-0.518619445,5.037796362,13.77629102
InAs,mp-20305,943,1216.15,3.084987144,2.914638925,34.85919031,18.26598487,-0.2289677,5.335683812,3.921056085
InBr,mp-22870,285,558.15,2.746750929,2.577730248,24.15142894,9.164127723,-0.671566143,4.737182879,29.39717301
InCl3,mp-862983,586,859.15,2.934068994,2.772550873,19.3173306,6.131593438,-1.427090457,2.654916881,37.8798641
InI,mp-23202,351,624.15,2.795288975,2.332128235,20.27687982,8.705397507,-0.466351018,5.133000138,17.60125667
InI3,mp-567789,210,483.15,2.684081984,2.098956164,9.848606903,4.752918962,-0.498589988,3.895564781,17.60125667
InP,mp-20351,1062,1335.15,3.12553006,3.16677358,41.35567619,21.83959335,-0.205801459,4.58162144,4.115419087
InS,mp-19795,692,965.15,2.984594815,3.644284761,43.32891,19.17062596,-0.823120973,4.77141557,14.7856211
InSb,mp-20012,525,798.15,2.902084518,2.66019125,24.88078556,13.5287971,-0.102700487,5.384059459,1.805992901
IrF6,mp-560553,44,317.15,2.501264716,3.671318747,53.51725405,16.32024856,-1.852032989,4.587660938,54.71072788
IrO2,mp-2723,1100,1373.15,3.137717981,5.952516152,180.0761255,70.07448345,-1.271091119,11.30226855,31.91409709
K2O,mp-971,740,1013.15,3.005673749,2.979825487,30.19087722,13.63094179,-1.252955539,2.291175837,82.02341305
K2O2,mp-2672,490,763.15,2.882609909,3.4448347,35.83845495,15.97030529,-1.296053307,2.312132548,82.02341305
K2S,mp-1022,840,1113.15,3.046553691,2.94676818,19.07507452,14.15966585,-1.276160716,1.760820776,53.90197138
K2Se,mp-8426,800,1073.15,3.03066043,2.594181507,17.11118042,12.40614904,-1.096585479,2.236225841,52.67942521
K2Te,mp-1747,874,1147.15,3.059620209,2.441522433,13.73292263,11.83889111,-1.024018029,2.450267309,33.60842367
KBr,mp-23251,734,1007.15,3.003094157,2.911033795,19.76192081,9.328807366,-1.761645812,2.624472422,68.17442582
KCl,mp-23193,770,1043.15,3.018346762,3.18763493,22.85503863,9.904537462,-2.248571008,1.903570406,74.5613369
KF,mp-463,858,1131.15,3.0535202,3.85188819,39.56220628,16.42978334,-2.95038494,2.418273283,91.76189628
KH,mp-24084,400,673.15,2.82811185,1.768392335,18.28217554,7.662016786,-0.264939461,1.44122857,37.8798641
KI,mp-22898,681,954.15,2.979616655,2.59996,14.78173826,8.254893238,-1.490958904,2.972225316,57.10436013
LaB6,mp-2680,2210,2483.15,3.395002955,6.665967263,196.1731247,145.7280675,-0.562225405,4.717521463,19.8203144
LaBr3,mp-23263,783,1056.15,3.023725603,4.149700626,41.06921075,13.82051174,-2.02255688,4.871831138,57.89063401
LaC2,mp-2367,2360,2633.15,3.4204756,6.893161193,138.8175383,73.02472989,-0.161506875,5.294806734,40.88142422
LaCl3,mp-22896,860,1133.15,3.054287403,4.664404801,53.57765015,16.14222092,-2.852747147,3.718762933,65.38558596
LaI3,mp-27979,772,1045.15,3.019178625,3.613298138,22.08748374,10.21610583,-1.546734723,4.888205241,45.57790737
LaS,mp-2350,2300,2573.15,3.410465104,6.24839675,76.62017664,42.08624386,-2.494838484,5.598981178,42.16638471
Li2O,mp-1960,1438,1711.15,3.233288082,4.279346947,81.23130708,69.25603534,-2.066696435,1.962800156,77.97297329
Li2S,mp-1153,938,1211.15,3.083197934,3.71362258,40.49737117,35.1676692,-1.557234552,1.62955104,47.2707576
Li3N,mp-2251,813,1086.15,3.035889807,2.88151522,45.5208379,37.820614,-0.462542883,1.288608934,65.38558596
LiBr,mp-976280,552,825.15,2.916532904,3.082579958,28.21975175,13.33017849,-1.568856551,2.788734789,62.47264304
LiCl,mp-1185319,610,883.15,2.946034473,3.43066322,26.39190126,8.956389935,-2.127263875,1.660108129,69.52001661
LiF,mp-1138,848,1121.15,3.049663721,4.44624769,89.18407522,62.45878053,-3.180409016,2.530430196,89.46007754
LiH,mp-23703,688.7,961.85,2.983107349,2.35030877,52.01757247,39.74768266,-0.482520473,0.824862689,31.07146895
LiI,mp-570935,469,742.15,2.870491692,2.706149908,22.83992785,9.353100165,-1.232813388,3.316300301,50.6187802
LuBr3,mp-866214,1400,1673.15,3.223534878,3.940115948,21.98108974,8.352485592,-1.814188928,3.975153419,51.03306933
LuCl3,mp-865324,905,1178.15,3.071200588,4.453703508,28.67675824,9.66361032,-2.64326258,3.102791327,59.05846039
LuF3,mp-1210818,1182,1455.15,3.162907764,6.178937125,110.2110893,53.90417594,-4.424837205,8.74427368,84.05500183
LuI3,mp-865521,1050,1323.15,3.121609081,3.374079954,14.26244997,7.235945474,-1.308733265,4.347721177,38.30855997
Mg2Ge,mp-408,1115,1388.15,3.142436397,2.520182533,42.04543941,24.78697197,-0.272901539,3.035880353,11.52940951
Mg2Si,mp-1367,1102,1375.15,3.138350073,2.688445183,38.61009507,26.33878203,-0.155243234,1.975370364,8.334582101
Mg3As2,mp-1990,800,1073.15,3.03066043,2.717771156,39.80074759,22.49209767,-0.627044578,3.047914569,17.23997243
Mg3Sb2,mp-2646,1245,1518.15,3.181314684,2.352669706,36.93768469,19.01485586,-0.364487498,3.936735684,12.79425725
MgBr2,mp-30034,711,984.15,2.993061297,2.953173387,32.19229066,9.731702805,-1.508893381,3.329358989,49.36995443
MgCl2,mp-23210,714,987.15,2.99438315,3.41756098,38.69232498,12.38100445,-2.253713057,2.055141071,57.49825279
MgF2,mp-1249,1263,1536.15,3.186433625,4.963594563,106.4815126,47.51842155,-3.849827535,3.034476004,83.17366555
MgH2,mp-23710,327,600.15,2.77825981,2.19453097,46.47729446,25.37099984,-0.278164444,1.423870393,17.96506559
MgI2,mp-23205,637,910.15,2.959112973,2.42182103,19.45065656,8.149289449,-1.031390208,3.892507414,36.59484381
MgO,mp-1265,2852,3125.15,3.494870867,5.52037899,139.8038236,82.96123149,-3.062430027,3.471430968,67.832868
MgS,mp-1315,2000,2273.15,3.356628095,4.13286552,63.65403039,34.74561319,-1.759310283,2.618787109,33.1838254
Mn2B,mp-20318,1580,1853.15,3.267910574,5.091223688,244.1714088,143.4270115,-0.397127351,7.609817023,5.825901023
Mn2P,mp-1849,1327,1600.15,3.204160696,4.24635312,170.7344762,79.38228852,-0.514075399,6.706865773,9.733158792
Mn2Sb,mp-20664,948,1221.15,3.086769014,3.437159525,105.8411323,44.41320773,0.026130624,7.757811983,6.058693719
Mn3O4,mp-18759,1564,1837.15,3.264144617,5.659831285,131.2578166,48.67671157,-2.064789107,4.592823197,59.05846039
MnB,mp-8365,1890,2163.15,3.335086636,5.499254354,261.8881286,179.7336125,-0.375981903,6.499320318,5.825901023
MnB2,mp-585,1827,2100.15,3.322250315,5.843120497,257.6030476,188.343882,-0.290671932,5.574663393,5.825901023
MnBr2,mp-28306,698,971.15,2.987286315,3.035541833,30.2358929,9.771549331,-0.81314119,3.825775716,39.16622248
MnCl2,mp-28233,652,925.15,2.966212153,3.424149217,42.67274313,11.69501015,-1.482180655,2.673234319,47.6922164
MnF2,mp-560902,856,1129.15,3.052751639,4.883884494,94.91392676,29.28089135,-2.991996828,3.744000315,77.15013553
MnI2,mp-28013,701,974.15,2.988625835,2.622356277,20.79783126,9.001645722,-0.453804817,4.463106049,26.51030546
MnO,mp-19006,1945,2218.15,3.345990912,5.61857617,146.3716912,52.40417371,-1.993446251,5.190708253,59.05846039
MnP,mp-2662,1147,1420.15,3.152334218,4.23686465,159.1131297,74.83012913,-0.556320124,5.958478698,9.733158792
MnSb,mp-786,840,1113.15,3.046553691,2.90565715,71.11905162,30.02316687,0.371406018,7.180776111,6.058693719
MnSe,mp-999540,1460,1733.15,3.238836151,3.638576845,46.53542393,21.79327183,-0.355909076,4.246871363,22.11992169
Mo2B,mp-2501,2280,2553.15,3.407076331,6.615547053,236.2694868,122.3628571,-0.316509289,9.106683077,0.359352777
Mo2B5,mp-7229,2200,2473.15,3.393250458,6.297480357,295.6370905,119.8487498,0.065421994,6.910597743,0.359352777
Mo2C,mp-1552,2687,2960.15,3.471313719,6.930889153,234.902716,122.1250823,-0.113189203,8.943989697,3.731112663
Mo2S3,mp-1627,1690,1963.15,3.292953484,5.526825848,106.6074872,50.01234835,-1.082126382,5.693219085,4.314173314
MoC,mp-2305,2577,2850.15,3.454867717,7.18880915,275.4679903,159.162424,-0.08383735,8.538697979,3.731112663
MoF6,mp-557259,17.5,290.65,2.463370327,4.342982133,47.79234037,15.74081812,-2.662566002,2.946658353,56.31214325
MoI3,mp-864733,927,1200.15,3.079235529,2.459283338,11.31867298,5.704098388,0.102722076,4.122189776,6.058693719
MoO3,mp-18856,795,1068.15,3.028632245,6.139837807,82.55742282,33.83390964,-2.018161948,4.118450077,33.60842367
MoS2,mp-2815,1185,1458.15,3.163802202,5.553404757,67.15801967,35.95500933,-1.308533822,4.053379366,4.314173314
Na2O,mp-2352,1132,1405.15,3.147722688,3.310850267,46.78043873,26.36521569,-1.450312134,2.350349561,79.29976224
Na2O2,mp-2340,675,948.15,2.976877049,3.562458243,55.93486834,29.12645754,-1.313425711,2.524002742,79.29976224
Na2S,mp-648,1176,1449.15,3.161113341,3.09592106,27.95026679,20.9017368,-1.291645411,1.826998383,49.36995443
NaBr,mp-22916,747,1020.15,3.008664034,2.83231429,29.7746269,13.08293031,-1.582675168,3.120798709,64.3073357
NaCl,mp-22862,800.7,1073.85,3.030943621,3.144401875,32.03727957,15.18653353,-2.105086814,2.105306084,71.15475429
NaF,mp-682,996,1269.15,3.103512954,3.95963582,61.79909909,31.31217733,-2.957881431,2.692672574,90.22776515
NaH,mp-23870,800,1073.15,3.03066043,1.870421295,29.02903484,15.80224923,-0.266717282,1.417181192,33.1838254
NaI,mp-23268,660,933.15,2.96995146,2.48454531,22.32556559,10.94669559,-1.275293075,3.572368908,52.67942521
NaO2,mp-1901,551.7,824.85,2.916374979,3.545009973,30.44312869,11.86910479,-0.907483043,2.190153242,79.29976224
Nb2C,mp-569989,3608,3881.15,3.588960428,7.767800692,207.9648462,126.3935466,-0.466661755,7.67375624,20.19826979
NbB,mp-2580,2270,2543.15,3.405371976,7.458900013,244.3345723,156.3859878,-0.769342252,7.429359441,4.72473902
NbB2,mp-450,3050,3323.15,3.521549945,7.29048927,280.0566665,199.1050541,-0.693850499,6.793798027,4.72473902
NbC,mp-910,3500,3773.15,3.576704071,7.926680675,263.4455819,169.547977,-0.459129635,7.616098778,20.19826979
NbN,mp-2634,2575,2848.15,3.454562858,7.164235705,256.8355979,138.0508198,-1.259710521,7.984187333,40.45274578
NbO,mp-2311,1937,2210.15,3.34442175,7.484862432,209.0244561,100.7829467,-2.293447202,7.010467016,57.10436013
NbO2,mp-557057,1902,2175.15,3.337489212,7.506926525,195.9392356,96.15151763,-2.907811129,5.675253089,57.10436013
NbSi2,mp-12104,1950,2223.15,3.346968766,5.937860114,155.9113059,90.52866704,-0.550527568,5.577439821,2.224876281
Nd2O3,mp-1045,2233,2506.15,3.399007061,7.666026142,151.7263882,60.83034742,-3.790726352,6.39558306,73.35317022
Nd2S3,mp-438,2207,2480.15,3.394477948,6.23140602,88.01968785,41.99821939,-2.457378701,5.34369916,40.45274578
Nd2Te3,mp-16380,1377,1650.15,3.217523424,4.782508266,24.6701656,23.26093311,-1.464066453,6.750487405,20.57841474
NdB6,mp-1929,2540,2813.15,3.44919289,6.622647354,201.5071081,145.4913681,-0.47532155,4.908783998,18.33135174
NdBr3,mp-27975,684,957.15,2.980980004,4.11324647,35.55757844,12.03643487,-1.909830818,4.632192477,56.31214325
NdCl3,mp-23183,758,1031.15,3.013321846,4.621381481,56.53967994,16.49961063,-2.733451921,3.972957571,63.94411175
NdI3,mp-864617,775,1048.15,3.020423439,3.548878665,12.56294663,6.8570888,-1.406043344,3.803891393,43.87562636
Ni2B,mp-2536,1230,1503.15,3.177002321,5.671045873,285.8301907,154.4533876,-0.289929523,8.10839559,0.421608724
Ni2P,mp-21167,1112,1385.15,3.141496806,4.89683245,203.3156192,89.13770035,-0.477534716,7.387820358,1.94091688
Ni2Si,mp-1118,1255,1528.15,3.184165986,5.326774676,219.9702398,104.4467078,-0.550311437,7.347406647,0.002499969
Ni3B,mp-2058,1155,1428.15,3.154773824,5.515489413,267.6959025,137.2911895,-0.263083617,8.260441597,0.421608724
Ni3S2,mp-362,660,933.15,2.96995146,4.85424604,143.4435407,60.29282279,-0.636190251,5.961738947,10.61568798
NiAs,mp-590,968,1241.15,3.093824272,4.206309043,130.8909099,53.97571588,-0.285800403,7.640999563,1.805992901
NiB,mp-14019,1080,1353.15,3.131345942,5.880632395,291.8040052,177.6743886,-0.242094934,7.165930276,0.421608724
NiBr2,mp-27637,963,1236.15,3.092071173,2.961357817,39.84253376,12.73517908,-0.395447167,4.972529824,24.0902461
NiCl2,mp-27396,1001,1274.15,3.105220559,3.050070473,41.50425963,12.6823645,-0.764591906,3.221310302,32.33661538
NiI2,mp-27638,797,1070.15,3.029444656,2.534693543,28.06624987,11.12911449,-0.022632077,5.584908626,13.11849437
NiO,mp-19009,1955,2228.15,3.347944424,5.177785438,164.8170777,50.89273227,-1.037390508,6.617519556,44.30194729
NiS,mp-1547,797,1070.15,3.029444656,4.746434845,129.6874538,54.69625837,-0.690433642,5.477143979,10.61568798
NiSb,mp-810,1102,1375.15,3.138350073,4.06318363,110.0610131,44.69260856,-0.270855453,8.564299413,0.488801458
NiSi2,mp-2291,1200,1473.15,3.16824697,5.04073849,146.6488433,81.25936818,-0.354086143,4.724646143,0.002499969
NpO2,mp-2616,2547,2820.15,3.450272208,7.690598063,197.2308094,79.47761675,-3.611401204,11.38060275,66.09473927
OsF6,mp-22626,32.1,305.25,2.484655673,4.040414034,56.78676904,18.35980937,-2.061909717,4.496786204,54.71072788
OsO4,mp-540783,40.6,313.75,2.496583734,5.938192363,66.96300339,28.76850588,-1.540625068,4.509052699,31.91409709
Pb3O4,mp-22633,500,773.15,2.88826376,4.665615931,54.69055492,20.94277221,-1.455742163,8.223901332,26.51030546
PbBr2,mp-862868,371,644.15,2.808987011,2.849343948,14.81536717,6.357574993,-0.926518735,5.137049314,9.446106116
PbCl2,mp-862871,501,774.15,2.888825118,3.190478142,16.62612221,6.837925587,-1.548085011,4.436947078,15.82102508
PbF2,mp-315,824,1097.15,3.040266007,4.294012667,59.35852778,19.27093732,-2.701700431,7.550325953,49.36995443
PbS,mp-21276,1113,1386.15,3.141810229,3.95612976,37.9820767,16.77082733,-0.864756712,7.333909255,1.550356299
PbSe,mp-2201,1078,1351.15,3.130703566,3.39251598,33.90422534,14.61483812,-0.560660086,7.886316966,1.202708937
PbTe,mp-19717,924,1197.15,3.07814857,3.117491965,29.00699685,13.64605766,-0.405773505,7.856997091,1.313793393
PdF2,mp-1058,952,1225.15,3.088189264,3.2416939,69.25725037,18.44727118,-1.395074791,5.616883596,54.71072788
PdO,mp-1336,750,1023.15,3.009939309,4.356388275,111.9917646,36.00189522,-0.799161191,7.793970984,31.91409709
PdS,mp-20250,950,1223.15,3.08747972,4.158701962,113.3557862,30.82526658,-0.685868603,6.46237567,3.545616572
Pr2S3,mp-15179,1765,2038.15,3.309236143,6.233987653,84.41459722,40.8255767,-2.451995753,5.135388981,40.88142422
PrB6,mp-12762,2610,2883.15,3.459867238,6.633408924,198.8863062,144.2671927,-0.483238626,4.797235899,18.70006752
PrBr3,mp-23221,691,964.15,2.984144606,4.117767726,42.25259932,13.56379696,-1.90937421,5.032489367,56.70898161
PrCl3,mp-23211,786,1059.15,3.024957471,4.636527296,55.00581043,16.14722435,-2.743619872,3.854030617,64.3073357
PrI3,mp-862800,737,1010.15,3.004385868,3.556876955,13.14016267,7.048623014,-1.40906377,3.861329384,44.30194729
PtF6,mp-505319,61.3,334.45,2.5243312,3.045410442,50.32843708,13.79557197,-1.466168462,4.825305494,51.44631048
PtO2,mp-1285,450,723.15,2.859228391,5.058192868,141.2428515,49.12343193,-0.936869982,11.24971615,28.56626863
PtSi,mp-696,1229,1502.15,3.176713302,5.731021255,178.1474576,73.43641172,-0.665131928,12.05589018,3.545616572
PuF3,mp-8033,1396,1669.15,3.222495367,5.578309463,198.2326421,64.54147968,-4.000765575,9.335509927,83.83788075
PuN,mp-1719,2550,2823.15,3.450733954,5.67316828,273.4165059,104.9270051,-1.477651851,14.20341763,53.90197138
PuO2,mp-1959,2774,3047.15,3.483893833,7.119742553,264.1423951,118.5829112,-3.636764751,11.74128896,68.85137242
Rb2O,mp-753746,500,773.15,2.88826376,2.805500817,22.13470671,8.23856768,-1.138266885,3.226482377,82.02341305
Rb2S,mp-8041,425,698.15,2.843948742,2.8255246,17.56768908,11.56116157,-1.214553153,2.799742908,53.90197138
Rb2Se,mp-11327,733,1006.15,3.002662732,2.487912747,15.58047072,9.873114629,-1.049952736,3.097731507,52.67942521
RbBr,mp-22867,693,966.15,2.985044558,2.86624593,16.96875493,7.835757357,-1.761584959,3.164377303,68.17442582
RbCl,mp-23295,715,988.15,2.994822875,3.12953951,20.5077587,8.108822545,-2.2352026,2.671979177,74.5613369
RbF,mp-11718,795,1068.15,3.028632245,3.74577913,37.67604089,12.4275509,-2.889002892,3.671084551,91.76189628
RbH,mp-24721,170,443.15,2.646550754,1.6823996,17.99126063,5.833416604,-0.223673738,2.610597041,37.8798641
RbI,mp-22903,642,915.15,2.961492284,2.57060361,12.75902502,6.759925294,-1.506329526,3.359968009,57.10436013
RbN3,mp-743,317,590.15,2.770962411,4.25850487,41.69991661,22.5222268,-0.429554884,2.634063974,70.83205927
RbO2,mp-12105,432,705.15,2.84828151,3.503125447,37.35938963,13.96202189,-0.962250617,3.144135701,82.02341305
Re2O7,mp-1016092,360,633.15,2.801506611,6.415032478,44.29703445,28.52900068,-2.038546246,5.837607745,44.72779357
ReF6,mp-1025374,18.5,291.65,2.464861981,4.397608173,48.65429196,16.04355853,-2.502873936,3.72524773,66.09473927
Sb2O3,mp-2136,656,929.15,2.968085831,4.896971178,69.18287138,25.31869013,-1.760908851,5.355850121,38.30855997
Sb2S3,mp-2809,550,823.15,2.915478983,3.682150348,35.88879771,16.53037969,-0.647360492,4.27822536,6.78159451
Sb2Se3,mp-2160,611,884.15,2.946525951,2.978902926,29.18663925,13.99467025,-0.255533655,5.341825109,6.058693719
Sb2Te3,mp-1201,617,890.15,2.949463196,2.70919981,27.64472795,13.75457698,-0.12999546,6.121655031,0.062480473
SbCl3,mp-22872,73.4,346.55,2.539765903,2.740688794,14.58933155,5.658796599,-1.314782648,2.628791677,26.51030546
SbCl5,mp-23176,3.2,276.35,2.441459469,2.425083475,11.43230711,4.437799072,-1.142785782,2.118807712,26.51030546
SbF3,mp-1880,292,565.15,2.752163732,4.078869422,56.45238941,17.55250842,-2.709304283,4.233887899,60.5929322
SbF5,mvc-3453,8.3,281.45,2.449401253,3.819114567,48.89559732,15.50949278,-2.599417993,3.493718644,60.5929322
SbI3,mp-23281,170.5,443.65,2.647040486,2.040009339,10.70620849,5.096111495,-0.359197431,4.293227467,8.882927926
Sc2O3,mp-216,2485,2758.15,3.440617881,7.770510755,166.8242485,105.9498378,-3.977897831,3.750786386,66.09473927
Sc2S3,mp-401,1775,2048.15,3.31136176,6.00224739,79.28078485,45.23174642,-2.310906937,2.872295472,31.07146895
ScB2,mp-2252,2250,2523.15,3.40194307,6.56595908,181.5561528,148.6920838,-0.838838981,3.660544064,10.91685154
ScCl3,mp-23309,960,1233.15,3.091015907,4.400346841,43.0805926,13.47370731,-2.564096572,2.136561368,55.51419338
ScF3,mp-10694,1552,1825.15,3.261298563,6.100037358,85.72151918,37.37077099,-4.320128096,2.51182358,82.02341305
SeCl4,mp-540675,305,578.15,2.76204053,2.160656221,3.744269244,3.231081668,-0.819252798,2.28801557,8.882927926
SeO2,mp-726,340,613.15,2.787566733,4.349579521,17.12497762,9.13867247,-1.164337712,3.731778921,17.96506559